#!/bin/bash
#
# Version 1.2 29/08/2005
# CERNLIB/GRAFLIB re-defined
# Forces lf95 for crlibm
# Adds g95 option
# Version 1.3 05/09/2005
# CERNLIB only for SixTrack (not SixTrack_da); CERNGRAF dropped.
# The -naglib option now works for SixTrack_da
# Version 1.4 1/8/2008
# Gets the version and modification date from sixtrack.s
# Corrects the BOINC variable in the Makefile
# make_six clean now exits after the clean just like a make clean
# Version 1.5 11/07/2008
# Adds the deck nwrtbnl and the flags bpm and bnlelens
# Version 2.0 Major change in philosophy; to clarify and document
# all types of make.
# Version 2.1 Adds bignblz option for Frank.
#
# July, 2009. Updated all libraries etc to use Frank's cernlib and X11 libraries
# if they are not present (SLC5!). Also verified correct linking on 32/64 bit
# systems, SLC4 and SLC5.    A NIGHTMARE!!!
# Default: tilt tracking fast crlibm cernlib naglib -bpm -api -da -collimat -bnlelens -cpss -boinc -cr
# and uses the Lahey-Fujitsu lf95 compiler 
# 12th August, 2009. Just changed print_map to print-map. Eric.
# Options:
# da => -tracking -cpss -boinc -collimat -cr +naglib
# collimat => -da -cr -boinc -cpss
# cpss => +cr -collimat -da -cernlib -naglib -boinc
# boinc => +cr +crlibm -collimat -da -cernlib -naglib -cpss
# bpm activates the collection of tracking data for sussix => basic SixTrack
# bnlelens activates the bnl electron lens options possibly => boinc, cr, crlibm
# nag => use f95 instead of LAHEY
# g77 => use g77
# g95 => use g95
# gfortran => use gfortran
# Version 2.2 August 2010
# Changed to nagfor, changed NAGLIBC for SLC4/5 compatibility
# Version 2.3 27th June, 2011 (including ylevinse collimation mods
# creating a stand alone Makefile and with an hdf5 flag).
# Replaced windows flag by api flag for BOINC
# Added Intel ifort, fio (rounded formatted I/O) flags,
# and an optional optimisation parameter [O|o][0-4].
# A new deck dump for debug. Changed nag to nagfor everywhere.
# Allowed crlibm for NAG nagfor and Intel ifort.
# Version 2.4 January, 2012. merged latest SixTrack production Rev 119
# with all my changes for ifort and FIO.
show_options()
{
    ons="The following selections are ON  :"
    offs="The following selections are OFF :"
    for i in `seq 1 24`
    do
        if test ${values[$i]} = "true"
        then
            ons="$ons ${options[$i]}"
        else
            offs="$offs ${options[$i]}"
        fi
    done
    echo "$ons"
    echo "$offs"
}
generate_makefile() 
{
    # Function generates a Makefile from the input file defined
    # Input argument 1: required, Makefile template
    # Input argument 2: optional (default Makefile) name of created Makefile
    if [ ! -f $1 ]
    then
        echo "ERROR: $1 not existing!"
        exit 1
    fi
    if [ "$2" ]
    then
        outfile=$2
    else
        outfile=Makefile
    fi
        sed  "s#%%FC%%#${FC}#g" $1 | \
        sed  "s#%%FCF%%#${FCF}#g" | \
        sed  "s#%%FCL%%#${FCL}#g" | \
        sed  "s#%%FCLMAP%%#${FCLMAP}#g" | \
        sed  "s#%%CRLIBM%%#$CRLIBM#g" | \
        sed  "s#%%CERNLIB%%#${CERNLIB}#g" | \
        sed  "s#%%gfortran_lib%%#$gfortran_lib#g" | \
        sed  "s#%%BOINC%%#$BOINC#g" | \
        sed  "s#%%NAGLIBC%%#$NAGLIBC#g" | \
        sed  "s#%%BEAMGAS%%#$BEAMGAS#g" \
        > $outfile
}

#NOTA BENE! Definitions of cernlib and naglib are reversed
# in the sense that while a "" null value implies option is ON
# the reverse is true for cernlib and naglib
# The 0th option is not used
declare -a options
declare -a values
options=(junk tilt tracking fast crlibm api       cernlib naglib da    collimat cpss  boinc cr    nagfor   g77   g95   gfortran bpm beamgas bnlelens bignblz debug hdf5  ifort fio)
values=(junk  true true     true false  false     true    true   false false    false false false false    false false false    false false    false   false false false false false)

sysname="`fs sysname`"
gfortran_lib=""
sversion=`grep 'data version' sixtrack.s` 
# get string between /....../
sversion=`echo $sversion | sed -e's/.*\/\(.*\)\//\1/'`
# remove the quotes
version=`echo $sversion | sed -e's/.\([0-9]*\).\([0-9]*\).\([0-9]*\)./\1\2\3/'`
moddate=`grep 'data moddate' sixtrack.s` 
moddate=`echo $moddate | sed -e's/.*\/\(.*\)\//\1/'`
moddate=`echo $moddate | sed -e's/.\(.*\)./\1/'`

command_line=$*
# Now we have the default settings
# we have ON
tilt=""
tracking=""
fast=""
crlibm="NULL"
cernlib="cernlib"
naglib="naglib"
# and we have OFF
api="api"
da="da"
collimat="collimat"
cpss="cpss"
boinc="boinc"
cr="cr"
nagfor="nagfor"
g77="g77"
g95="g95"
gfortran="gfortran"
bpm="bpm"
beamgas="beamgas"
bnlelens="bnlelens"
bignblz="bignblz"
debug="debug"
hdf5="hdf5"
ifort="ifort"
lf95="lf95"
fio="fio"
while test $# != 0
do
    case $1 in
        clean) echo "Cleaning crlibm, astuce and dafor and removing ALL SixTrack_* directories."
            rm -f SixTrack
            rm -f *.o dafor astuce
            rm -f crlibm/crlibm.a crlibm/*.o
            rm -rf SixTrack_* 
            exit
            ;;
        -tilt) tilt="tilt"
            values[1]=false
            ;;
        -tracking) tracking="tracking"
            values[2]=false
            ;;
        -fast) fast="fast"
            values[3]=false
            ;;
        -crlibm) crlibm="crlibm"
            values[4]=false
            ;;
        -api) api="api"
            values[5]=false
            ;;
        -cernlib) cernlib=""
            values[6]=false
            ;;
        -naglib) naglib=""
            values[7]=false
            ;;
        -da) da="da"
            values[8]=false
            ;;
        -collimat) collimat="collimat"
            values[9]=false
            ;;
        -cpss) cpss="cpss"
            values[10]=false
            ;;
        -boinc) boinc="boinc"
            values[11]=false
            ;;
        -cr) cr="cr"
            values[12]=false
            ;;
        -nag) nagfor="nagfor"
            values[13]=false
            ;;
        -g77) g77="g77"
            values[14]=false
            ;;
        -g95) g95="g95"
            values[15]=false
            ;;
        -gfortran) gfortran="gfortran"
            values[16]=false
            ;;
        -bpm) bpm="bpm"
            values[17]=false
            ;;
        -beamgas) beamgas="beamgas"
            values[18]=false
            ;;
        -bnlelens) bnlelens="bnlelens"
            values[19]=false
            ;;
        -bignblz) bignblz="bignblz"
            values[20]=false
            ;;
        -debug) debug="debug"
            values[21]=false
            ;;
        -hdf5) hdf5="hdf5"
            values[22]=false
            ;;
        -ifort) ifort="ifort"
            values[23]=false
            ;;
        -fio) fio="fio"
            values[24]=false
            ;;


        tilt) tilt=""
            values[1]=true
            ;;
        tracking) tracking=""
            values[2]=true
            ;;
        fast) fast=""
            values[3]=true
            ;;
        crlibm) crlibm=""
            values[4]=true
            ;;
        api) api=""
            values[5]=true
            ;;
        cernlib) cernlib="cernlib"
            values[6]=true
            ;;
        naglib) naglib="naglib"
            values[7]=true
            ;;
        da) da=""
            values[8]=true
            ;;
        collimat) collimat=""
            values[9]=true
            ;;
        cpss) cpss=""
            values[10]=true
            ;;
        boinc) boinc=""
            values[11]=true
            ;;
        cr) cr=""
            values[12]=true
            ;;
        nagfor) nagfor=""
            values[13]=true
            ;;
        g77) g77=""
            values[14]=true
            ;;
        g95) g95=""
            values[15]=true
            ;;
        gfortran) gfortran=""
            values[16]=true
            ;;
        bpm) bpm=""
            values[17]=true
            ;;
        beamgas) beamgas=""
            values[18]=true
            ;;
        bnlelens) bnlelens=""
            values[19]=true
            ;;
        bignblz) bignblz=""
            values[20]=true
            ;;
        debug) debug=""
            values[21]=true
            ;;
        hdf5) hdf5=""
            values[22]=true
            ;;
        ifort) ifort=""
            values[23]=true
            ;;
        fio) fio=""
            values[24]=true
            ;;

    O) myopt=O
    ;;
    O0) myopt=O0
    ;;
    o0) myopt=o0
    ;;
    O1) myopt=O1
    ;;
    o1) myopt=o1
    ;;
    O2) myopt=O2
    ;;
    o2) myopt=o2
    ;;
    O3) myopt=O3
    ;;
    o3) myopt=o3
    ;;
    O4) myopt=O4
    ;;
    o4) myopt=o4
    ;;

        *) echo "Illegal option $1"
            exit 1
            ;;
    esac
    shift
done
# Here we do some checking for valid/invalid combinations
if test "$da" = "" -a "$collimat" = ""
then
  show_options
  echo "     INVALID options selected:"
  echo "     Select only one of da or collimat!"
  exit 1
elif test "$da" != "" -a "$collimat" != ""
then
  tracking=""
  values[2]=true
fi
if test "$boinc" = ""
then
  # BOINC includes the CPSS options
  cpss=""
  values[10]=true
fi
if test "$beamgas" = ""
then
    if test "$collimat" != ""
    then
        show_options
        echo "     INVALID options selected:"
        echo "     beamgas requires collimat"
        exit 1
    fi
    BEAMGAS="beamgas.o"
elif test "$hdf5" = ""
then
    if test "$collimat" != ""
    then
        show_options
        echo "     INVALID options selected:"
        echo "     hdf5 makes no sense without collimat"
        exit 1
    fi
    BEAMGAS="beamgas.o"
else
    BEAMGAS=""
fi
if [ ! "$hdf5" ]
then
    if [ "$collimat" ]
    then
        show_options
        echo "     INVALID options selected:"
        echo "     hdf5 is only for the tracks-file in"
        echo "     collimation studies"
        exit 1
    fi
fi
if test "$da" = "" -o "$collimat" = ""
then
    if test "$cpss" = ""
    then
        show_options
        echo "     INVALID options selected:"
        echo "     BOINC/CPSS are for tracking only (NOT da nor collimat)"
        exit 1
    fi
    if test "$bpm" = ""
    then
        show_options
        echo "    INVALID options selected:"
        echo "    bpm is for tracking only and not for desktops!"
        exit 1
    fi
fi
if test "$da" = "da"
then
    naglib=""
    values[7]=false
fi
if test "$crlibm" = "NULL"
then
  # It has not been specified!
  if test "$collimat" = ""
  then
    # Turn it off for collimation
    crlibm="crlibm"
    values[4]=false
    echo "Option crlibm turned OFF for collimation"
  else
    # Turn it on
    crlibm=""
    values[4]=true
    echo "Option crlibm turned ON"
  fi
fi
if test "$collimat" != "" -a "$cpss" = ""
then
    # We will build for windows and Linux boinc and cpss 
    # Note that boinc forces the cpss flag anyway
    # The api flag is now used to force the real BOINC api.
    # and we turn off cernlib
    cernlib=""
    values[6]=false
    echo "Option cernlib turned OFF"
    crlibm=""
    values[4]=true
    echo "Option crlibm turned ON"
    cr=""
    values[12]=true
    echo "Option Checkpoint/Restart turned ON"
fi
if test "$crlibm" = ""
then
    echo ""
    echo "NOTA BENE: SKIPPING checks for crlibm !!!"
    echo "Should really only be specified for tracking with lf95 or ifort!"
    echo ""
fi
# Set up compiler
if test "$nagfor" = ""
then
    export FC="nagfor"
    if test "$myopt" = ""
    then
      myopt="O"
    fi
    export FCF="-$myopt -abi=32 -dusty -maxcontin=60 -dcfuns -ieee=full"
    #export FCF="-$myopt -C=undefined -abi=32 -dusty -maxcontin=60 -dcfuns -ieee=full -g90"
    # export FCF="-float-store -$myopt -C=undefined -abi=32 -dusty -maxcontin=60 -dcfuns -ieee=full -g90"
    # export FCF="-float-store -$myopt -C=all -abi=32 -dusty -maxcontin=60 -dcfuns -ieee=full -g90"
    export FCL="-Bstatic -abi=32"
    export NAGLIBC="-L/usr/lib/gcc/x86_64-redhat-linux/3.4.6/32 -lg2c"
elif test "$g77" = ""
then
    export FC="g77"
    if test "$myopt" = ""
    then
      myopt="O"
    fi
    export FCF="-$myopt -m32 -g -fno-second-underscore -funroll-loops"
    export FCL="-static -m32"
elif test "$g95" = ""
then
    export FC="g95"
    if test "$myopt" = ""
    then
      myopt="O"
    fi
    export FCF="-4 -Wa,--32 -g -fno-second-underscore -funroll-loops"
    if test "$MACHTYPE" = "i586"
    then
        export FCL="-static -m32 -L/usr/lib/ -lc -L/usr/lib/gcc/i586-redhat-linux/4.4.0 -lgcc_eh"
    else
        export FCL="-static -m32"
    fi
elif test "$gfortran" = ""
then
    export FC="gfortran"
    if test "$myopt" = ""
    then
      myopt="O4"
    fi
    export FCF="-$myopt -m32 -g -fno-second-underscore -funroll-loops"
    export FCL="-static -m32"
elif test "$ifort" = ""
then
  export FC="ifort"
  if test "$myopt" = ""
  then
    myopt="O"
  fi
  if test "$cpss" = "" -o "$crlibm" = ""
  then
# For v4308
# Retry arch=ia32 for comparison for v4302
#   export FCF="-$myopt -arch IA32 -m32 -fp-model source -fp-model strict -fp-model no-except"
# This version is in make_six_noSSE2
# and now try for a speedup with NO arch IA32 v4309
    export FCF="-$myopt -mia32 -axSSE2 -fp-model source -fp-model strict -fp-model no-except"
  else
    export FCF="-$myopt -m32"
  fi
  export FCL="-static -m32"
else
  export FC="lf95"
  export lf95=""
  if test "$myopt" = ""
  then
    myopt="o1"
  fi
  export FCF="--$myopt --tp -Wa,--32"
  export FCL="-static -m32"
  if [[ "$MACHTYPE" == *x86_64* ]] 
  then
    ls -l /usr/lib/gcc/x86_64-redhat-linux/4.1.1/32/libgcc_eh.a > /dev/null 2>&1
    if test $? -ne 0
    then
      export FCL="-static -m32"
    else
      export FCL="-static -m32 -L/usr/lib/ -lc -L/usr/lib/gcc/x86_64-redhat-linux/3.4.6/32 -lgcc_eh"
    fi
  elif [[ "$MACHTYPE" == *i386* || "$MACHTYPE" == *i486* ]]
  then
    ls -l /usr/lib/gcc/i386-redhat-linux/4.1.1/libgcc_eh.a > /dev/null 2>&1
    if test $? -ne 0
    then
      export FCL="-static -m32"
    else
      export FCL="-static -m32 -L/usr/lib/ -lc -L/usr/lib/gcc/i386-redhat-linux/4.1.1 -lgcc_eh"
    fi
  elif test "$MACHTYPE" = "i586"
  then
      export FCL="-static -m32 -L/usr/lib/ -lc -L/usr/lib/gcc/i586-redhat-linux/4.4.0 -lgcc_eh"
  else
    echo "Unknow MACHTYPE $MACHTYPE"
    exit 2
  fi 
fi
if test "$hdf5" = ""
then
    # H5ROOT is the location where you find the  HDF5 libs and include files for your compiler...
    # Seems the mod files must be created with the EXACT same compiler.
    if test "$gfortran" = ""
    then
        gccver=`gfortran -dumpversion`
        if [[ $gccver == 4\.6\.* ]]
        then
            export H5ROOT="/afs/cern.ch/user/y/ylevinse/scratch0/hdf5/hdf5-1.8.7-gcc46"
        elif [[ $gccver == 4\.5\.* ]]
        then
            export H5ROOT="/afs/cern.ch/user/y/ylevinse/scratch0/hdf5/hdf5-1.8.6-gcc45"
        elif [[ $gccver == 4\.3\.* ]]
        then
            export H5ROOT="/afs/cern.ch/user/y/ylevinse/scratch0/hdf5/hdf5-1.8.6-gcc43"
        else
            echo "ERROR: hdf5 not available for gcc version $gccver, please disable hdf5 or use gcc version 4.3 or 4.5"
            exit 1
        fi
    elif test "$ifort" = ""
    then
            export H5ROOT="/afs/cern.ch/user/y/ylevinse/scratch0/hdf5/hdf5-1.8.7-ifort"
    else
            echo "ERROR: hdf5 not available, please disable hdf5"
            exit 1
    fi
    export FCF="$FCF -I${H5ROOT}/include"
fi

if test "$MACHTYPE" = "i586"
then
    export FCLMAP="$FCL"
else
    export FCLMAP="-Wl,--print-map $FCL"
fi

if test "$OSTYPE" = "darwin"
then
  # allows running of sixtrack under Macintosh System 10
  echo "MAC setup"
  export FCL="-m32"
  echo "Operating system: ",$OSTYPE
#  FIX up with Frank's fix for 4.6!!!!
  export gfortran_lib="/sw/lib/gcc4.4/lib/libgfortran.a"
  if test "$da" != ""
  then
    export FCLMAP="-Wl,-map sixtrack.map $FCL"
  else
    export FCLMAP="-Wl,-map sixtrack_da.map $FCL"
  fi
else
  echo "Linux/windows setup for $sysname / WINDOWS 2000/XP"
fi

ename="SixTrack_${version}_"
if test "$crlibm" = ""
then
    ename=$ename"crlibm_"
fi
if test "$da" = ""
then
    ename=$ename"da_"
elif test "$collimat" = ""
then
    ename=$ename"coll_"
elif test "$bnlelens" = ""
then
    ename=$ename"bnl_"
elif test "$bpm" = ""
then
    ename=$ename"bpm_"
fi
if test "$beamgas" = ""
then
    ename=$ename"beamgas_"
fi
ename=$ename$FC
if test "$fio" = ""
then
  ename=$ename"_fio"
fi
if test "$boinc" = ""
then
    ename=$ename"_boinc"
elif test "$cpss" = ""
then
    ename=$ename"_cpss"
fi
if test "$bignblz" = ""
then
    ename=$ename"_bignblz"
fi
if test "$debug" = ""
then
    ename=$ename"_debug"
fi
if test "$api" = ""
then
    ename=$ename"_api"
fi
ename=${ename}_$myopt
export ename

echo ""
echo "We are about to build $ename"
echo "last modified on $moddate"
echo "with the following options:"
echo ""
echo "Note that building for windows/boinc/cpss will also"
echo "build for Linux as a validity check."
echo ""
show_options
echo ""
echo "And compiler options:"
echo "FC = $FC"
echo "FCF = $FCF"
echo "FCL = $FCL"
echo ""
echo "Hit any key to continue, or CTRL/C to exit."
read junk
# Make astuce and dafor (required for sixvefox and sixscfox)
generate_makefile Makefile.template
make astuce
make dafor
# Create and initialise the build directory
mkdir -p "$ename"
# and now copy the BOINC interfaces for BOINC and api
if test "$boinc" = "" -a "$api" = ""
then
  cp cern_boinc_api_fortran.C $ename
  cp boinc_api_fortran.C $ename
# cp maincr.f $ename
fi
cd "$ename"
for dots in dabnew  lielib  sixtrack
do
    ln -sf ../${dots}.s ${dots}.s
done
# Use only necessary .ast (and .f later)
if test "$da" = ""
then
    export FORS='sixda sixsc sixscfox dabnew lielib beamgas'
else
    export FORS='track sixve sixvefox dabnews lielib beamgas'
fi
rm -f *.ast
for i in $FORS 
do
    cp ../ast_mask/$i.ast .
done
# Update the .ast flags based on options
for opt in "$crlibm" "$tilt" "$fast" "$bpm" "$beamgas" "$collimat" "$bnlelens" "$cr" "$boinc" "$nagfor" "$bignblz" "$debug" "$hdf5" "$fio" "$ifort" "$lf95" 
do
    if test "$opt" != ""
    then
        for i in `ls *.ast`
        do
            sed -e 's/\(^df .*\), *'$opt' *,\(.*\)/\1,\2/' \
                -e 's/\(^df .*\), *'$opt' *$/\1/' \
                -e 's/\(^df  *'$opt' *,\)\(.*\)/df \2/'  \
                -e 's/\(^df  *'$opt' *$\)/df/'         \
                $i > tmp$$
            if test $? -ne 0
            then
                echo "Problem updating the definitions in $i !!!"
                exit 3
            fi
            mv tmp$$ $i
        done
    fi
done
# Delete unneeded decks from the .ast based on options
for opt in "$collimat" "$cr" "$cernlib" "$naglib" "$bnlelens" "$debug"
do
    if test "$opt" != ""
    then
        case $opt in
            collimat) pattern="nwrtcoll"
                ;;
            bnlelens) pattern="nwrtbnl"
                ;;
            cr)       pattern="checkpt"
                ;;
            cernlib)  pattern="plotdumy"
                ;;
            naglib)   pattern="nagdumy"
                ;;
            debug)   pattern="dumps"
                ;;
        esac
        for i in `ls *.ast`
        do
            sed -e '/^e  *'$pattern'/d' $i > tmp$$
            if test $? -ne 0
            then
                echo "Problem deleting decks in $i !!!"
                exit 3
            fi
            mv tmp$$ $i
        done
    fi
done
# Then generate the .f files
for i in $FORS
do
    ../astuce < $i.ast
    if test "$i" = "sixvefox" -o "$i" = "sixscfox" -o "$i" = "sixda"
    then
        ln -s -f $i"n.f" fort.1
        ../dafor
        rm -f fort.1 fort.3
        mv fort.2 $i"n.f"
    fi 
    if test -s $i.f
    then
        diff $i"n.f" $i.f > /dev/null
        if test $? -ne 0
        then
            mv $i"n.f" $i.f
        else
            rm $i"n.f"
        fi
    else
        mv $i"n.f" $i.f
    fi
done
# Now sort out cernlib
if test "$cernlib" != ""
then
    if [[ "$OSTYPE" == *linux* ]]
    then
        ls -l /cern/pro/bin/cernlib > /dev/null 2>&1
        stat1=$?
        ls -l /usr/X11R6/lib/libX11.a > /dev/null 2>&1
        stat2=$?
        if test $stat1 -eq 0 -a $stat2 -eq 0
        then
            if [[ "$MACHTYPE" == *i386* || "$MACHTYPE" == *i486* ]]
            then
                export CERNLIB="`cernlib -u graflib packlib_noshift kernlib_noshift` -L/usr/lib/gcc/i386-redhat-linux/3.4.6 -lg2c -L/usr/lib -lpthread"
            elif [[ "$MACHTYPE" == *x86_64* ]]
            then
                export CERNLIB="`cernlib -u graflib packlib_noshift kernlib_noshift` -L/usr/lib/gcc/x86_64-redhat-linux/3.4.6/32 -lg2c -L/usr/lib -lpthread"
            else
                echo "Unknown MACHTYPE $MACHTYPE!!"
                exit 2
            fi
        else
            if [[ "$MACHTYPE" == *i386* || "$MACHTYPE" == *i486* ]]
            then
                export CERNLIB="-L../lib32 -lgraflib -lgrafX11 -lpacklib_noshift -lkernlib_noshift -lg2c -lX11 -lxcb -lXau -lXdmcp -L/usr/lib/gcc/i386-redhat-linux/3.4.6 -ldl -lpthread -lgcc_eh"
            elif test "$MACHTYPE" = "i586"
            then
                export FCLMAP="-static -m32"
                export CERNLIB="-L/usr/lib/cernlib/2006/lib/ -lgraflib -lgrafX11 -lpacklib -lkernlib -L/usr/lib/gcc/i586-redhat-linux/3.4.6 -lg2c -L/usr/lib -lX11 -lxcb -lxcb-glx -lXau -lXdmcp -ldl" 
                export CERNLIB+=" -lpthread -L/usr/lib/gcc/i586-redhat-linux/4.4.0 -lgcc -lgcc_eh"
                if test "$gfortran" != ""
                then
                    export CERNLIB+=" -lgfortran"
                fi
            elif [[ "$MACHTYPE" == *x86_64* ]]
            then
                # YIL: for gfortran 4.4/4.5 don't say which directory to use...
                if ( ${FC} --version | grep 4.4. > /dev/null ) || ( ${FC} --version | grep 4.5. > /dev/null )
                then 
                    export CERNLIB="-L../lib32 -lgraflib -lgrafX11 -lpacklib_noshift -lkernlib_noshift -lg2c -lX11 -lxcb -lXau -lXdmcp -ldl -lpthread -lgcc_eh"
                else
                    export CERNLIB="-L../lib32 -lgraflib -lgrafX11 -lpacklib_noshift -lkernlib_noshift -lg2c -lX11 -lxcb -lXau -lXdmcp -L/usr/lib/gcc/x86_64-redhat-linux/3.4.6/32 -ldl -lpthread -lgcc_eh"
                fi
                # YIL: add hdf5 libs
                if test "$hdf5" = ""
                then
                    export CERNLIB="-Wl,--start-group -L${H5ROOT}/lib32/ -lhdf5 -lhdf5_hl -lhdf5_fortran -lhdf5hl_fortran -lz -lm -Wl,--end-group  $CERNLIB"
                fi
            else
                echo "Unknown MACHTYPE $MACHTYPE!!"
            fi
        fi
    elif test "$OSTYPE" = "darwin"
    then
        export CERN_ROOT="/sw"
        export CERNLIB="`$CERN_ROOT/bin/cernlib -u graflib packlib kernlib` -lpthread"
    else
        echo "Unrecognised OSTYPE $OSTYPE (not linux or darwin)"
        exit 2
    fi
fi
# and naglib
if test "$naglib" != ""
then
    if test "$sysname" = "Current sysname is 'i386_linux26'"
    then
        #SLC4 32 machine
        export NAGLIB="/afs/cern.ch/sw/nag/mark18/lnx/fllux18dg/libnag.a  -L/usr/lib/gcc/i386-redhat-linux/3.4.3 -lg2c -L/usr/lib -lpthread"
    elif test "$sysname" = "Current sysname is 'amd64_linux26'"
    then
        #SLC4 64 machine
        export NAGLIB="/afs/cern.ch/sw/nag/mark18/lnx/fllux18dg/libnag.a  -L/usr/lib/gcc/x86_64-redhat-linux/3.4.3/32 -lg2c -L/usr/lib -lpthread"
    else
        echo "NAGLIB cannot be found for your machine. SixTrack_da linking will fail!"
    fi
fi
# and crlibm
export CRLIBM=""
if test "$crlibm" = ""
then
  mkdir -p crlibm
  cp -r ../crlibm/* crlibm
  cd crlibm
# and fix the Makefile.template
  sed  -e 's/%%FC%%/'"${FC}"'/g' \
       -e 's/%%FCF%%/'"${FCF}"'/g' \
    Makefile.template > Makefile
  make clean
  make crlibm.a
  if test $? -ne 0
  then
    echo "Failed to make crlibm!!! Please inform McIntosh."
    exit 4
  fi
  cd ..
  export CRLIBM="crlibm/crlibm.a"
fi
if test "$da" = ""
then
  # Fix up the Makefile
  generate_makefile ../Makefile.template Makefile
  sed -e's/%%SIXTRACK_DA%%/'$ename'/g' Makefile > tmp$$
  mv tmp$$ Makefile  
  # remove an existing executable
  rm -f $ename
  make $ename
else
  export BOINC=""
  if test "$boinc" = ""
  then
    if test "$api" = ""
    then

      export BOINC="../boinc_api_fortran.o ../boinc_api.o ../libboinc.a ../libboinc_zip.a"

# Temporary fix until we actually have the BOINC libs
#     export BOINC="myboinc.o"
#     cp ../myboinc.f .
    else
      export BOINC="myboinc.o"
      cp ../myboinc.f .
    fi
  fi
  generate_makefile ../Makefile.template Makefile
  sed -e's/%%SIXTRACK%%/'$ename'/g' Makefile > tmp$$
  mv tmp$$ Makefile
  # We make for Linux now because we are finished or as a verification 
  # before we set up for windows.
  #YIL addition: creating beamgas.f90 instead of beamgas.f
  mv beamgas.f beamgas.f90
  # mv sixve.f sixve.f90
  # mv track.f track.f90
  generate_makefile Makefile Makefile.tmp
  mv Makefile.tmp Makefile
 # do the setup for Windows anway
  if test "$cpss" = ""
  then
    echo ""
    echo "Setting up for Windows"
    echo ""
    cd crlibm
    # We [re-]copy myboinc.f even for CPSS
    sed -e's/%%SIXTRACK%%/'$ename'/g' Makefile.bat.template > tmp$$
    mv tmp$$ Makefile.bat
    if test "$boinc" = ""
    then
        # If  boinc i.e. not just CPSS link in the BOINC api or myboinc.obj
        if test "$api" != ""
        then
            sed -e's/%%BOINC%%/myboinc.obj/g' Makefile.bat > tmp$$
        else
            sed -e's?%%BOINC%%?../boinc_api_fortran.obj ../libboinc_api.a?g' Makefile.bat > tmp$$
        fi
    else
        sed -e's/%%BOINC%%//g' \
            -e'/myboinc.f/d' Makefile.bat > tmp$$
    fi
    mv tmp$$ Makefile.bat
    cd ..
    echo "Now the $ename directory needs to be taken to Windows."
    echo "The Makefile.bat allows for checking boinc/cpss before"
    echo "really building the BOINC/CPSS version."
    echo ""
  fi
  # remove an existing executable
  rm -f $ename
  # and make myboinc.o if necessary
# if test "$boinc" = ""
# then
#   if test "$api" != ""
#   then
#     rm -f myboinc.o
#     make myboinc.o
#   fi
# fi
  # and (at last) do a make...........
  make $ename
fi
echo "       "
echo "$0 : $command_line"
echo "tried to build $ename in the directory with the same name."
echo ""
show_options
echo ""
if test -s "$ename"
then
    echo "It appears to have completed successfully."
    # and a link for Frank
    cd ..
    ln -sf $ename/$ename SixTrack
    cd $ename
else
    echo "It appears to have failed!!!"
    exit 2
fi
# Note that selecting boinc has forced cpss
if test "$cpss" = ""
then
  echo ""
  echo "Setting up crlibm and Makefile.bat for Windows"
  echo ""
  # We [re-]copy myboinc.f even for CPSS
  sed -e's/%%SIXTRACK%%/'$ename'/g' Makefile.bat > tmp$$
  mv tmp$$ Makefile.bat
  if test "$boinc" = ""
  then
    # If  boinc i.e. not just CPSS link in the BOINC api or myboinc.obj
    if test "$api" != ""
    then
       sed -e's/%%BOINC%%/myboinc.obj/g' Makefile.bat > tmp$$
    else
      sed -e's?%%BOINC%%?../boinc_api_fortran.obj ../libboinc_api.a?g' Makefile.bat > tmp$$
    fi
  else
     sed -e's/%%BOINC%%//g' \
         -e'/myboinc.f/d' Makefile.bat > tmp$$
  fi
  mv tmp$$ Makefile.bat
  echo ""
  echo "Now the $ename directory needs to be taken to Windows."
  echo "The Makefile.bat allows for checking boinc/cpss before"
  echo "really building the BOINC/CPSS version."
fi
